# vtk DataFile Version 2.0
step 0 time 0.000000e+00 normalized time 0.000000e+00, generated by convert_mesh.py
ASCII
DATASET UNSTRUCTURED_GRID

POINTS 12 float
0.0 0.0 0.0
0.08 0.0 0.0
0.16 0.0 0.0
0.24 0.0 0.0
0.0 0.05 0.0
0.08 0.05 0.0
0.16 0.05 0.0
0.24 0.05 0.0
0.0 0.1 0.0
0.08 0.1 0.0
0.16 0.1 0.0
0.24 0.1 0.0

CELLS 6 30
4 0 1 5 4
4 1 2 6 5
4 2 3 7 6
4 4 5 9 8
4 5 6 10 9
4 6 7 11 10

CELL_TYPES 6
9
9
9
9
9
9

POINT_DATA 12

SCALARS node_groups int 1
LOOKUP_TABLE default
0
0
0
0
0
0
0
0
0
0
0
0

CELL_DATA 6
SCALARS mat_id int 1
LOOKUP_TABLE default
1
1
1
1
1
1
